<?xml version="1.0"?>
<VTKFile type="UnstructuredGrid"  version="0.1"  >
<UnstructuredGrid>
<Piece  NumberOfPoints="6561" NumberOfCells="12800">
<Points>
<DataArray  type="Float64"  NumberOfComponents="3"  format="ascii">0 0 0  0.0125 0 0  0.025 0 0  0.0375 0 0  0.05 0 0  0.0625 0 0  0.075 0 0  0.08749999999999999 0 0  0.1 0 0  0.1125 0 0  0.125 0 0  0.1375 0 0  0.15 0 0  0.1625 0 0  0.175 0 0  0.1875 0 0  0.2 0 0  0.2125 0 0  0.225 0 0  0.2375 0 0  0.25 0 0  0.2625 0 0  0.275 0 0  0.2875 0 0  0.3 0 0  0.3125 0 0  0.325 0 0  0.3375 0 0  0.35 0 0  0.3625 0 0  0.375 0 0  0.3875 0 0  0.4 0 0  0.4125 0 0  0.425 0 0  0.4375 0 0  0.45 0 0  0.4625 0 0  0.475 0 0  0.4875 0 0  0.5 0 0  0.5125 0 0  0.525 0 0  0.5375 0 0  0.55 0 0  0.5625 0 0  0.575 0 0  0.5875 0 0  0.6 0 0  0.6125 0 0  0.625 0 0  0.6375 0 0  0.65 0 0  0.6625 0 0  0.675 0 0  0.6875 0 0  0.7 0 0  0.7125 0 0  0.725 0 0  0.7375 0 0  0.75 0 0  0.7625 0 0  0.775 0 0  0.7875 0 0  0.8 0 0  0.8125 0 0  0.825 0 0  0.8375 0 0  0.85 0 0  0.8625 0 0  0.875 0 0  0.8875 0 0  0.9 0 0  0.9125 0 0  0.925 0 0  0.9375 0 0  0.95 0 0  0.9625 0 0  0.975 0 0  0.9875 0 0  1 0 0  0 0.0125 0  0.0125 0.0125 0  0.025 0.0125 0  0.0375 0.0125 0  0.05 0.0125 0  0.0625 0.0125 0  0.075 0.0125 0  0.08749999999999999 0.0125 0  0.1 0.0125 0  0.1125 0.0125 0  0.125 0.0125 0  0.1375 0.0125 0  0.15 0.0125 0  0.1625 0.0125 0  0.175 0.0125 0  0.1875 0.0125 0  0.2 0.0125 0  0.2125 0.0125 0  0.225 0.0125 0  0.2375 0.0125 0  0.25 0.0125 0  0.2625 0.0125 0  0.275 0.0125 0  0.2875 0.0125 0  0.3 0.0125 0  0.3125 0.0125 0  0.325 0.0125 0  0.3375 0.0125 0  0.35 0.0125 0  0.3625 0.0125 0  0.375 0.0125 0  0.3875 0.0125 0  0.4 0.0125 0  0.4125 0.0125 0  0.425 0.0125 0  0.4375 0.0125 0  0.45 0.0125 0  0.4625 0.0125 0  0.475 0.0125 0  0.4875 0.0125 0  0.5 0.0125 0  0.5125 0.0125 0  0.525 0.0125 0  0.5375 0.0125 0  0.55 0.0125 0  0.5625 0.0125 0  0.575 0.0125 0  0.5875 0.0125 0  0.6 0.0125 0  0.6125 0.0125 0  0.625 0.0125 0  0.6375 0.0125 0  0.65 0.0125 0  0.6625 0.0125 0  0.675 0.0125 0  0.6875 0.0125 0  0.7 0.0125 0  0.7125 0.0125 0  0.725 0.0125 0  0.7375 0.0125 0  0.75 0.0125 0  0.7625 0.0125 0  0.775 0.0125 0  0.7875 0.0125 0  0.8 0.0125 0  0.8125 0.0125 0  0.825 0.0125 0  0.8375 0.0125 0  0.85 0.0125 0  0.8625 0.0125 0  0.875 0.0125 0  0.8875 0.0125 0  0.9 0.0125 0  0.9125 0.0125 0  0.925 0.0125 0  0.9375 0.0125 0  0.95 0.0125 0  0.9625 0.0125 0  0.975 0.0125 0  0.9875 0.0125 0  1 0.0125 0  0 0.025 0  0.0125 0.025 0  0.025 0.025 0  0.0375 0.025 0  0.05 0.025 0  0.0625 0.025 0  0.075 0.025 0  0.08749999999999999 0.025 0  0.1 0.025 0  0.1125 0.025 0  0.125 0.025 0  0.1375 0.025 0  0.15 0.025 0  0.1625 0.025 0  0.175 0.025 0  0.1875 0.025 0  0.2 0.025 0  0.2125 0.025 0  0.225 0.025 0  0.2375 0.025 0  0.25 0.025 0  0.2625 0.025 0  0.275 0.025 0  0.2875 0.025 0  0.3 0.025 0  0.3125 0.025 0  0.325 0.025 0  0.3375 0.025 0  0.35 0.025 0  0.3625 0.025 0  0.375 0.025 0  0.3875 0.025 0  0.4 0.025 0  0.4125 0.025 0  0.425 0.025 0  0.4375 0.025 0  0.45 0.025 0  0.4625 0.025 0  0.475 0.025 0  0.4875 0.025 0  0.5 0.025 0  0.5125 0.025 0  0.525 0.025 0  0.5375 0.025 0  0.55 0.025 0  0.5625 0.025 0  0.575 0.025 0  0.5875 0.025 0  0.6 0.025 0  0.6125 0.025 0  0.625 0.025 0  0.6375 0.025 0  0.65 0.025 0  0.6625 0.025 0  0.675 0.025 0  0.6875 0.025 0  0.7 0.025 0  0.7125 0.025 0  0.725 0.025 0  0.7375 0.025 0  0.75 0.025 0  0.7625 0.025 0  0.775 0.025 0  0.7875 0.025 0  0.8 0.025 0  0.8125 0.025 0  0.825 0.025 0  0.8375 0.025 0  0.85 0.025 0  0.8625 0.025 0  0.875 0.025 0  0.8875 0.025 0  0.9 0.025 0  0.9125 0.025 0  0.925 0.025 0  0.9375 0.025 0  0.95 0.025 0  0.9625 0.025 0  0.975 0.025 0  0.9875 0.025 0  1 0.025 0  0 0.0375 0  0.0125 0.0375 0  0.025 0.0375 0  0.0375 0.0375 0  0.05 0.0375 0  0.0625 0.0375 0  0.075 0.0375 0  0.08749999999999999 0.0375 0  0.1 0.0375 0  0.1125 0.0375 0  0.125 0.0375 0  0.1375 0.0375 0  0.15 0.0375 0  0.1625 0.0375 0  0.175 0.0375 0  0.1875 0.0375 0  0.2 0.0375 0  0.2125 0.0375 0  0.225 0.0375 0  0.2375 0.0375 0  0.25 0.0375 0  0.2625 0.0375 0  0.275 0.0375 0  0.2875 0.0375 0  0.3 0.0375 0  0.3125 0.0375 0  0.325 0.0375 0  0.3375 0.0375 0  0.35 0.0375 0  0.3625 0.0375 0  0.375 0.0375 0  0.3875 0.0375 0  0.4 0.0375 0  0.4125 0.0375 0  0.425 0.0375 0  0.4375 0.0375 0  0.45 0.0375 0  0.4625 0.0375 0  0.475 0.0375 0  0.4875 0.0375 0  0.5 0.0375 0  0.5125 0.0375 0  0.525 0.0375 0  0.5375 0.0375 0  0.55 0.0375 0  0.5625 0.0375 0  0.575 0.0375 0  0.5875 0.0375 0  0.6 0.0375 0  0.6125 0.0375 0  0.625 0.0375 0  0.6375 0.0375 0  0.65 0.0375 0  0.6625 0.0375 0  0.675 0.0375 0  0.6875 0.0375 0  0.7 0.0375 0  0.7125 0.0375 0  0.725 0.0375 0  0.7375 0.0375 0  0.75 0.0375 0  0.7625 0.0375 0  0.775 0.0375 0  0.7875 0.0375 0  0.8 0.0375 0  0.8125 0.0375 0  0.825 0.0375 0  0.8375 0.0375 0  0.85 0.0375 0  0.8625 0.0375 0  0.875 0.0375 0  0.8875 0.0375 0  0.9 0.0375 0  0.9125 0.0375 0  0.925 0.0375 0  0.9375 0.0375 0  0.95 0.0375 0  0.9625 0.0375 0  0.975 0.0375 0  0.9875 0.0375 0  1 0.0375 0  0 0.05 0  0.0125 0.05 0  0.025 0.05 0  0.0375 0.05 0  0.05 0.05 0  0.0625 0.05 0  0.075 0.05 0  0.08749999999999999 0.05 0  0.1 0.05 0  0.1125 0.05 0  0.125 0.05 0  0.1375 0.05 0  0.15 0.05 0  0.1625 0.05 0  0.175 0.05 0  0.1875 0.05 0  0.2 0.05 0  0.2125 0.05 0  0.225 0.05 0  0.2375 0.05 0  0.25 0.05 0  0.2625 0.05 0  0.275 0.05 0  0.2875 0.05 0  0.3 0.05 0  0.3125 0.05 0  0.325 0.05 0  0.3375 0.05 0  0.35 0.05 0  0.3625 0.05 0  0.375 0.05 0  0.3875 0.05 0  0.4 0.05 0  0.4125 0.05 0  0.425 0.05 0  0.4375 0.05 0  0.45 0.05 0  0.4625 0.05 0  0.475 0.05 0  0.4875 0.05 0  0.5 0.05 0  0.5125 0.05 0  0.525 0.05 0  0.5375 0.05 0  0.55 0.05 0  0.5625 0.05 0  0.575 0.05 0  0.5875 0.05 0  0.6 0.05 0  0.6125 0.05 0  0.625 0.05 0  0.6375 0.05 0  0.65 0.05 0  0.6625 0.05 0  0.675 0.05 0  0.6875 0.05 0  0.7 0.05 0  0.7125 0.05 0  0.725 0.05 0  0.7375 0.05 0  0.75 0.05 0  0.7625 0.05 0  0.775 0.05 0  0.7875 0.05 0  0.8 0.05 0  0.8125 0.05 0  0.825 0.05 0  0.8375 0.05 0  0.85 0.05 0  0.8625 0.05 0  0.875 0.05 0  0.8875 0.05 0  0.9 0.05 0  0.9125 0.05 0  0.925 0.05 0  0.9375 0.05 0  0.95 0.05 0  0.9625 0.05 0  0.975 0.05 0  0.9875 0.05 0  1 0.05 0  0 0.0625 0  0.0125 0.0625 0  0.025 0.0625 0  0.0375 0.0625 0  0.05 0.0625 0  0.0625 0.0625 0  0.075 0.0625 0  0.08749999999999999 0.0625 0  0.1 0.0625 0  0.1125 0.0625 0  0.125 0.0625 0  0.1375 0.0625 0  0.15 0.0625 0  0.1625 0.0625 0  0.175 0.0625 0  0.1875 0.0625 0  0.2 0.0625 0  0.2125 0.0625 0  0.225 0.0625 0  0.2375 0.0625 0  0.25 0.0625 0  0.2625 0.0625 0  0.275 0.0625 0  0.2875 0.0625 0  0.3 0.0625 0  0.3125 0.0625 0  0.325 0.0625 0  0.3375 0.0625 0  0.35 0.0625 0  0.3625 0.0625 0  0.375 0.0625 0  0.3875 0.0625 0  0.4 0.0625 0  0.4125 0.0625 0  0.425 0.0625 0  0.4375 0.0625 0  0.45 0.0625 0  0.4625 0.0625 0  0.475 0.0625 0  0.4875 0.0625 0  0.5 0.0625 0  0.5125 0.0625 0  0.525 0.0625 0  0.5375 0.0625 0  0.55 0.0625 0  0.5625 0.0625 0  0.575 0.0625 0  0.5875 0.0625 0  0.6 0.0625 0  0.6125 0.0625 0  0.625 0.0625 0  0.6375 0.0625 0  0.65 0.0625 0  0.6625 0.0625 0  0.675 0.0625 0  0.6875 0.0625 0  0.7 0.0625 0  0.7125 0.0625 0  0.725 0.0625 0  0.7375 0.0625 0  0.75 0.0625 0  0.7625 0.0625 0  0.775 0.0625 0  0.7875 0.0625 0  0.8 0.0625 0  0.8125 0.0625 0  0.825 0.0625 0  0.8375 0.0625 0  0.85 0.0625 0  0.8625 0.0625 0  0.875 0.0625 0  0.8875 0.0625 0  0.9 0.0625 0  0.9125 0.0625 0  0.925 0.0625 0  0.9375 0.0625 0  0.95 0.0625 0  0.9625 0.0625 0  0.975 0.0625 0  0.9875 0.0625 0  1 0.0625 0  0 0.075 0  0.0125 0.075 0  0.025 0.075 0  0.0375 0.075 0  0.05 0.075 0  0.0625 0.075 0  0.075 0.075 0  0.08749999999999999 0.075 0  0.1 0.075 0  0.1125 0.075 0  0.125 0.075 0  0.1375 0.075 0  0.15 0.075 0  0.1625 0.075 0  0.175 0.075 0  0.1875 0.075 0  0.2 0.075 0  0.2125 0.075 0  0.225 0.075 0  0.2375 0.075 0  0.25 0.075 0  0.2625 0.075 0  0.275 0.075 0  0.2875 0.075 0  0.3 0.075 0  0.3125 0.075 0  0.325 0.075 0  0.3375 0.075 0  0.35 0.075 0  0.3625 0.075 0  0.375 0.075 0  0.3875 0.075 0  0.4 0.075 0  0.4125 0.075 0  0.425 0.075 0  0.4375 0.075 0  0.45 0.075 0  0.4625 0.075 0  0.475 0.075 0  0.4875 0.075 0  0.5 0.075 0  0.5125 0.075 0  0.525 0.075 0  0.5375 0.075 0  0.55 0.075 0  0.5625 0.075 0  0.575 0.075 0  0.5875 0.075 0  0.6 0.075 0  0.6125 0.075 0  0.625 0.075 0  0.6375 0.075 0  0.65 0.075 0  0.6625 0.075 0  0.675 0.075 0  0.6875 0.075 0  0.7 0.075 0  0.7125 0.075 0  0.725 0.075 0  0.7375 0.075 0  0.75 0.075 0  0.7625 0.075 0  0.775 0.075 0  0.7875 0.075 0  0.8 0.075 0  0.8125 0.075 0  0.825 0.075 0  0.8375 0.075 0  0.85 0.075 0  0.8625 0.075 0  0.875 0.075 0  0.8875 0.075 0  0.9 0.075 0  0.9125 0.075 0  0.925 0.075 0  0.9375 0.075 0  0.95 0.075 0  0.9625 0.075 0  0.975 0.075 0  0.9875 0.075 0  1 0.075 0  0 0.08749999999999999 0  0.0125 0.08749999999999999 0  0.025 0.08749999999999999 0  0.0375 0.08749999999999999 0  0.05 0.08749999999999999 0  0.0625 0.08749999999999999 0  0.075 0.08749999999999999 0  0.08749999999999999 0.08749999999999999 0  0.1 0.08749999999999999 0  0.1125 0.08749999999999999 0  0.125 0.08749999999999999 0  0.1375 0.08749999999999999 0  0.15 0.08749999999999999 0  0.1625 0.08749999999999999 0  0.175 0.08749999999999999 0  0.1875 0.08749999999999999 0  0.2 0.08749999999999999 0  0.2125 0.08749999999999999 0  0.225 0.08749999999999999 0  0.2375 0.08749999999999999 0  0.25 0.08749999999999999 0  0.2625 0.08749999999999999 0  0.275 0.08749999999999999 0  0.2875 0.08749999999999999 0  0.3 0.08749999999999999 0  0.3125 0.08749999999999999 0  0.325 0.08749999999999999 0  0.3375 0.08749999999999999 0  0.35 0.08749999999999999 0  0.3625 0.08749999999999999 0  0.375 0.08749999999999999 0  0.3875 0.08749999999999999 0  0.4 0.08749999999999999 0  0.4125 0.08749999999999999 0  0.425 0.08749999999999999 0  0.4375 0.08749999999999999 0  0.45 0.08749999999999999 0  0.4625 0.08749999999999999 0  0.475 0.08749999999999999 0  0.4875 0.08749999999999999 0  0.5 0.08749999999999999 0  0.5125 0.08749999999999999 0  0.525 0.08749999999999999 0  0.5375 0.08749999999999999 0  0.55 0.08749999999999999 
[...]
<CellData  Scalars="f_11"> 
<DataArray  type="Float64"  Name="f_11"  format="ascii">3.5984900000000003e+01   3.5984900000000003e+01   3.8898800000000001e+01   3.8898800000000001e+01   4.2541400000000003e+01   4.2541400000000003e+01   4.6782100000000000e+01   4.6782100000000000e+01   5.1315600000000003e+01   5.1315600000000003e+01   5.5700099999999999e+01   5.5700099999999999e+01   5.9466900000000003e+01   5.9466900000000003e+01   6.2283499999999997e+01   6.2283499999999997e+01   6.4089699999999993e+01   6.4089699999999993e+01   6.5133200000000002e+01   6.5133200000000002e+01   6.5884699999999995e+01   6.5884699999999995e+01   6.6887500000000003e+01   6.6887500000000003e+01   6.8613799999999998e+01   6.8613799999999998e+01   7.1356499999999997e+01   7.1356499999999997e+01   7.5152900000000002e+01   7.5152900000000002e+01   7.9726900000000001e+01   7.9726900000000001e+01   8.4469899999999996e+01   8.4469899999999996e+01   8.8518600000000006e+01   8.8518600000000006e+01   9.0975600000000000e+01   9.0975600000000000e+01   9.1219999999999999e+01   9.1219999999999999e+01   8.9161600000000007e+01   8.9161600000000007e+01   8.5264700000000005e+01   8.5264700000000005e+01   8.0331500000000005e+01   8.0331500000000005e+01   7.5182699999999997e+01   7.5182699999999997e+01   7.0406499999999994e+01   7.0406499999999994e+01   6.6255200000000002e+01   6.6255200000000002e+01   6.2668999999999997e+01   6.2668999999999997e+01   5.9373100000000001e+01   5.9373100000000001e+01   5.6016199999999998e+01   5.6016199999999998e+01   5.2325200000000002e+01   5.2325200000000002e+01   4.8234800000000000e+01   4.8234800000000000e+01   4.3929000000000002e+01   4.3929000000000002e+01   3.9774500000000003e+01   3.9774500000000003e+01   3.6185299999999998e+01   3.6185299999999998e+01   3.3503200000000000e+01   3.3503200000000000e+01   3.1946000000000002e+01   3.1946000000000002e+01   3.1613299999999999e+01   3.1613299999999999e+01   3.2501600000000003e+01   3.2501600000000003e+01   3.4485199999999999e+01   3.4485199999999999e+01   3.7249699999999997e+01   3.7249699999999997e+01   4.0221200000000003e+01   4.0221200000000003e+01   4.2585400000000000e+01   4.2585400000000000e+01   4.3493099999999998e+01   4.3493099999999998e+01   4.2414099999999998e+01   4.2414099999999998e+01   3.9416200000000003e+01   3.9416200000000003e+01   3.5134599999999999e+01   3.5134599999999999e+01   3.0447199999999999e+01   3.0447199999999999e+01   2.6109900000000000e+01   2.6109900000000000e+01   2.2571700000000000e+01   2.2571700000000000e+01   1.9992599999999999e+01   1.9992599999999999e+01   1.8354199999999999e+01   1.8354199999999999e+01   1.7565899999999999e+01   1.7565899999999999e+01   1.7528400000000001e+01   1.7528400000000001e+01   1.8157599999999999e+01   1.8157599999999999e+01   1.9384200000000000e+01   1.9384200000000000e+01   2.1141999999999999e+01   2.1141999999999999e+01   2.3349399999999999e+01   2.3349399999999999e+01   2.5888800000000000e+01   2.5888800000000000e+01   2.8584399999999999e+01   2.8584399999999999e+01   3.1187899999999999e+01   3.1187899999999999e+01   3.3385399999999997e+01   3.3385399999999997e+01   3.4845500000000001e+01   3.4845500000000001e+01   3.5308500000000002e+01   3.5308500000000002e+01   3.4689999999999998e+01   3.4689999999999998e+01   3.3140099999999997e+01   3.3140099999999997e+01   3.1015499999999999e+01   3.1015499999999999e+01   2.8775400000000001e+01   2.8775400000000001e+01   2.6862700000000000e+01   2.6862700000000000e+01   2.5634499999999999e+01   2.5634499999999999e+01   2.5361200000000000e+01   2.5361200000000000e+01   2.6269400000000001e+01   2.6269400000000001e+01   2.8591200000000001e+01   2.8591200000000001e+01   3.2584099999999999e+01   3.2584099999999999e+01   3.8487200000000001e+01   3.8487200000000001e+01   4.6390700000000002e+01   4.6390700000000002e+01   5.6020099999999999e+01   5.6020099999999999e+01   6.6520899999999997e+01   6.6520899999999997e+01   7.6423900000000003e+01   7.6423900000000003e+01   8.3973699999999994e+01   8.3973699999999994e+01   8.7804000000000002e+01   8.7804000000000002e+01   3.3723500000000001e+01   3.3723500000000001e+01   3.6574500000000000e+01   3.6574500000000000e+01   4.0317500000000003e+01   4.0317500000000003e+01   4.4823399999999999e+01   4.4823399999999999e+01   4.9732599999999998e+01   4.9732599999999998e+01   5.4484400000000001e+01   5.4484400000000001e+01   5.8457099999999997e+01   5.8457099999999997e+01   6.1195099999999996e+01   6.1195099999999996e+01   6.2613300000000002e+01   6.2613300000000002e+01   6.3048200000000001e+01   6.3048200000000001e+01   6.3134200000000000e+01   6.3134200000000000e+01   6.3590100000000000e+01   6.3590100000000000e+01   6.5040000000000006e+01   6.5040000000000006e+01   6.7898899999999998e+01   6.7898899999999998e+01   7.2298199999999994e+01   7.2298199999999994e+01   7.8005600000000001e+01   7.8005600000000001e+01   8.4354100000000003e+01   8.4354100000000003e+01   9.0275300000000001e+01   9.0275300000000001e+01   9.4536100000000005e+01   9.4536100000000005e+01   9.6177400000000006e+01   9.6177400000000006e+01   9.4930000000000007e+01   9.4930000000000007e+01   9.1325599999999994e+01   9.1325599999999994e+01   8.6415499999999994e+01   8.6415499999999994e+01   8.1310900000000004e+01   8.1310900000000004e+01   7.6813299999999998e+01   7.6813299999999998e+01   7.3260499999999993e+01   7.3260499999999993e+01   7.0542900000000003e+01   7.0542900000000003e+01   6.8214600000000004e+01   6.8214600000000004e+01   6.5663499999999999e+01   6.5663499999999999e+01   6.2347799999999999e+01   6.2347799999999999e+01   5.8037599999999998e+01   5.8037599999999998e+01   5.2945300000000003e+01   5.2945300000000003e+01   4.7647599999999997e+01   4.7647599999999997e+01   4.2842300000000002e+01   4.2842300000000002e+01   3.9115099999999998e+01   3.9115099999999998e+01   3.6833199999999998e+01   3.6833199999999998e+01   3.6162700000000001e+01   3.6162700000000001e+01   3.7116599999999998e+01   3.7116599999999998e+01   3.9546599999999998e+01   3.9546599999999998e+01   4.3047300000000000e+01   4.3047300000000000e+01   4.6832700000000003e+01   4.6832700000000003e+01   4.9744999999999997e+01   4.9744999999999997e+01   5.0570599999999999e+01   5.0570599999999999e+01   4.8607900000000001e+01   4.8607900000000001e+01   4.4089799999999997e+01   4.4089799999999997e+01   3.8064300000000003e+01   3.8064300000000003e+01   3.1818400000000000e+01   3.1818400000000000e+01   2.6326200000000000e+01   2.6326200000000000e+01   2.2053400000000000e+01   2.2053400000000000e+01   1.9067399999999999e+01   1.9067399999999999e+01   1.7238800000000001e+01   1.7238800000000001e+01   1.6391100000000002e+01   1.6391100000000002e+01   1.6372699999999998e+01   1.6372699999999998e+01   1.7074100000000001e+01   1.7074100000000001e+01   1.8420300000000001e+01   1.8420300000000001e+01   2.0352699999999999e+01   2.0352699999999999e+01   2.2809899999999999e+01   2.2809899999999999e+01   2.5701400000000000e+01   2.5701400000000000e+01   2.8876300000000001e+01   2.8876300000000001e+01   3.2087600000000002e+01   3.2087600000000002e+01   3.4974699999999999e+01   3.4974699999999999e+01   3.7096100000000000e+01   3.7096100000000000e+01   3.8039299999999997e+01   3.8039299999999997e+01   3.7582999999999998e+01   3.7582999999999998e+01   3.5827399999999997e+01   3.5827399999999997e+01   3.3194699999999997e+01   3.3194699999999997e+01   3.0287099999999999e+01   3.0287099999999999e+01   2.7697500000000002e+01   2.7697500000000002e+01   2.5887899999999998e+01   2.5887899999999998e+01   2.5181500000000000e+01   2.5181500000000000e+01   2.5831299999999999e+01   2.5831299999999999e+01   2.8105599999999999e+01   2.8105599999999999e+01   3.2335500000000003e+01   3.2335500000000003e+01   3.8880699999999997e+01   3.8880699999999997e+01   4.7964399999999998e+01   4.7964399999999998e+01   5.9359900000000003e+01   5.9359900000000003e+01   7.2024199999999993e+01   7.2024199999999993e+01   8.3968299999999999e+01   8.3968299999999999e+01   9.2700100000000006e+01   9.2700100000000006e+01   9.6275499999999994e+01   9.6275499999999994e+01   3.1126300000000001e+01   3.1126300000000001e+01   3.3748500000000000e+01   3.3748500000000000e+01   3.7379300000000001e+01   3.7379300000000001e+01   4.1910200000000003e+01   4.1910200000000003e+01   4.6957200000000000e+01   4.6957200000000000e+01   5.1875300000000003e+01   5.1875300000000003e+01   5.5909900000000000e+01   5.5909900000000000e+01   5.8484499999999997e+01   5.8484499999999997e+01   5.9473799999999997e+01   5.9473799999999997e+01   5.9280000000000001e+01   5.9280000000000001e+01   5.8666600000000003e+01   5.8666600000000003e+01   5.8490499999999997e+01   5.8490499999999997e+01   5.9490200000000002e+01   5.9490200000000002e+01   6.2182899999999997e+01   6.2182899999999997e+01   6.6813299999999998e+01   6.6813299999999998e+01   7.3267099999999999e+01   7.3267099999999999e+01   8.0950100000000006e+01   8.0950100000000006e+01   8.8730500000000006e+01   8.8730500000000006e+01   9.5127799999999993e+01   9.5127799999999993e+01   9.8816800000000001e+01   9.8816800000000001e+01   9.9222999999999999e+01   9.9222999999999999e+01   9.6794300000000007e+01   9.6794300000000007e+01   9.2734800000000007e+01   9.2734800000000007e+01   8.8428899999999999e+01   8.8428899999999999e+01   8.4938599999999994e+01   8.4938599999999994e+01   8.2765600000000006e+01   8.2765600000000006e+01   8.1823999999999998e+01   8.1823999999999998e+01   8.1513499999999993e+01   8.1513499999999993e+01   8.0882300000000001e+01   8.0882300000000001e+01   7.8929699999999997e+01   7.8929699999999997e+01   7.5037599999999998e+01   7.5037599999999998e+01   6.9308599999999998e+01   6.9308599999999998e+01   6.2558599999999998e+01   6.2558599999999998e+01   5.5941099999999999e+01   5.5941099999999999e+01   5.0486899999999999e+01   5.0486899999999999e+01   4.6856499999999997e+01   4.6856499999999997e+01   4.5342900000000000e+01   4.5342900000000000e+01   4.5966799999999999e+01   4.5966799999999999e+01   4.8503100000000003e+01   4.8503100000000003e+01   5.2374699999999997e+01   5.2374699999999997e+01   5.6498100000000001e+01   5.6498100000000001e+01   5.9319600000000001e+01   5.9319600000000001e+01   5.9292299999999997e+01   5.9292299999999997e+01   5.5675199999999997e+01   5.5675199999999997e+01   4.9039099999999998e+01   4.9039099999999998e+01   4.0946300000000001e+01   4.0946300000000001e+01   3.3069499999999998e+01   3.3069499999999998e+01   2.6498300000000000e+01   2.6498300000000000e+01   2.1611599999999999e+01   2.1611599999999999e+01   1.8322700000000001e+01   1.8322700000000001e+01   1.6368099999999998e+01   1.6368099999999998e+01   1.5482699999999999e+01   1.5482699999999999e+01   1.5464700000000001e+01   1.5464700000000001e+01   1.6180099999999999e+01   1.6180099999999999e+01   1.7546299999999999e+01   1.7546299999999999e+01   1.9513500000000001e+01   1.9513500000000001e+01   2.2047599999999999e+01   2.2047599999999999e+01   2.5108499999999999e+01   2.5108499999999999e+01   2.8611599999999999e+01   2.8611599999999999e+01   3.2371600000000001e+01   3.2371600000000001e+01   3.6043199999999999e+01   3.6043199999999999e+01   3.9109499999999997e+01   3.9109499999999997e+01   4.0974899999999998e+01   4.0974899999999998e+01   4.1180799999999998e+01   4.1180799999999998e+01   3.9647599999999997e+01   3.9647599999999997e+01   3.6772100000000002e+01   3.6772100000000002e+01   3.3286999999999999e+01   3.3286999999999999e+01   2.9982399999999998e+01   2.9982399999999998e+01   2.7486999999999998e+01   2.7486999999999998e+01   2.6219100000000001e+01   2.6219100000000001e+01   2.6472000000000001e+01   2.6472000000000001e+01   2.8539800000000000e+01   2.8539800000000000e+01   3.2804600000000001e+01   3.2804600000000001e+01   3.9723999999999997e+01   3.9723999999999997e+01   4.9648800000000001e+01   4.9648800000000001e+01   6.2421599999999998e+01   6.2421599999999998e+01   7.6849599999999995e+01   7.6849599999999995e+01   9.0445899999999995e+01   9.0445899999999995e+01   9.9981899999999996e+01   9.9981899999999996e+01   1.0297900000000000e+02   1.0297900000000000e+02   2.8364100000000001e+01   2.8364100000000001e+01   3.0645399999999999e+01   3.0645399999999999e+01   3.4000300000000003e+01   3.4000300000000003e+01   3.8349400000000003e+01   3.8349400000000003e+01   4.3313899999999997e+01   4.3313899999999997e+01   4.8204400000000000e+01   4.8204400000000000e+01   5.2170200000000001e+01   5.2170200000000001e+01   5.4527600000000000e+01   5.4527600000000000e+01   5.5098199999999999e+01   5.5098199999999999e+01   5.4316899999999997e+01   5.4316899999999997e+01   5.3034900000000000e+01   5.3034900000000000e+01   5.2196399999999997e+01   5.2196399999999997e+01   5.2605800000000002e+01   5.2605800000000002e+01   5.4843600000000002e+01   5.4843600000000002e+01   5.9251500000000000e+01   5.9251500000000000e+01   6.5870800000000003e+01   6.5870800000000003e+01   7.4288300000000007e+01   7.4288300000000007e+01   8.3484099999999998e+01   8.3484099999999998e+01   9.1900700000000001e+01   9.1900700000000001e+01   9.7916300000000007e+01   9.7916300000000007e+01   1.0057400000000000e+02   1.0057400000000000e+02   1.0006999999999999e+02   1.0006999999999999e+02   9.7605999999999995e+01   9.7605999999999995e+01   9.4777000000000001e+01   9.4777000000000001e+01   9.2938000000000002e+01   9.2938000000000002e+01   9.2856499999999997e+01   9.2856499999999997e+01   9.4600700000000003e+01   9.4600700000000003e+01   9.7521699999999996e+01   9.7521699999999996e+01   1.0031699999999999e+02   1.0031699999999999e+02   1.0133300000000000e+02   1.0133300000000000e+02   9.9210200000000000e+01   9.9210200000000000e+01   9.3598500000000001e+01   9.3598500000000001e+01   8.5430499999999995e+01   8.5430499999999995e+01   7.6455100000000002e+01   7.6455100000000002e+01   6.8428799999999995e+01   6.8428799999999995e+01   6.2552700000000002e+01   6.2552700000000002e+01   5.9373899999999999e+01   5.9373899999999999e+01   5.8933399999999999e+01   5.8933399999999999e+01   6.0868600000000001e+01   6.0868600000000001e+01   6.4344300000000004e+01   6.4344300000000004e+01   6.7923699999999997e+01   6.7923699999999997e+01   6.9691699999999997e+01   6.9691699999999997e+01   6.7917299999999997e+01   6.7917299999999997e+01   6.2019700000000000e+01   6.2019700000000000e+01   5.3025100000000002e+01   5.3025100000000002e+01   4.2963999999999999e+01   4.2963999999999999e+01   3.3736100000000000e+01   3.3736100000000000e+01   2.6389800000000001e+01   2.6389800000000001e+01   2.1130900000000000e+01   2.1130900000000000e+01   1.7698300000000000e+01   1.7698300000000000e+01   1.5706600000000000e+01   1.5706600000000000e+01   1.4819100000000001e+01   1.4819100000000001e+01   1.4794700000000001e+01   1.4794700000000001e+01   1.5476900000000001e+01   1.5476900000000001e+01   1.6771999999999998e+01   1.6771999999999998e+01   1.8634399999999999e+01   1.8634399999999999e+01   2.1058299999999999e+01   2.1058299999999999e+01   2.4064900000000002e+01   2.4064900000000002e+01   2.7666200000000000e+01   2.7666200000000000e+01   3.1794300000000000e+01   3.1794300000000000e+01   3.6200800000000001e+01   3.6200800000000001e+01   4.0373300000000000e+01   4.0373300000000000e+01   4.3560400000000001e+01   4.3560400000000001e+01   4.4990699999999997e+01   4.4990699999999997e+01   4.4240099999999998e+01   4.4240099999999998e+01   4.1515599999999999e+01   4.1515599999999999e+01   3.7608600000000003e+01   3.7608600000000003e+01   3.3542099999999998e+01   3.3542099999999998e+01   3.0196300000000001e+01   3.0196300000000001e+01   2.8153600000000001e+01   2.8153600000000001e+01   2.7774000000000001e+01   2.7774000000000001e+01   2.9362800000000000e+01   2.9362800000000000e+01   3.3309100000000001e+01   3.3309100000000001e+01   4.0109900000000003e+01   4.0109900000000003e+01   5.0198799999999999e+01   5.0198799999999999e+01   6.3498500000000000e+01   6.3498500000000000e+01   7.8772400000000005e+01   7.8772400000000005e+01   9.3228499999999997e+01   9.3228499999999997e+01   1.0311600000000000e+02   1.0311600000000000e+02   1.0556100000000001e+02   1.0556100000000001e+02   2.5632000000000001e+01   2.5632000000000001e+01   2.7531700000000001e+01   2.7531700000000001e+01   3.0525900000000000e+01   3.0525900000000000e+01   3.4565399999999997e+01   3.4565399999999997e+01   3.9296300000000002e+01   3.9296300000000002e+01   4.4021999999999998e+01   4.4021999999999998e+01   4.7833599999999997e+01   4.7833599999999997e+01   4.9959600000000002e+01   4.9959600000000002e+01   5.0160800000000002e+01   5.0160800000000002e+01   4.8874600000000001e+01   4.8874600000000001e+01   4.6999499999999998e+01   4.6999499999999998e+01   4.5525900000000000e+01   4.5525900000000000e+01   4.5278599999999997e+01   4.5278599999999997e+01   4.6853800000000000e+01   4.6853800000000000e+01   5.0649200000000000e+01   5.0649200000000000e+01   5.6843400000000003e+01   5.6843400000000003e+01   6.5249200000000002e+01   6.5249200000000002e+01   7.5089299999999994e+01   7.5089299999999994e+01   8.4920699999999997e+01   8.4920699999999997e+01   9.2981099999999998e+01   9.2981099999999998e+01   9.7948300000000003e+01   9.7948300000000003e+01   9.9642399999999995e+01   9.9642399999999995e+01   9.9097200000000001e+01   9.9097200000000001e+01   9.8000500000000002e+01   9.8000500000000002e+01   9.7978600000000000e+01   9.7978600000000000e+01   1.0013600000000000e+02   1.0013600000000000e+02   1.0484200000000000e+02   1.0484200000000000e+02   1.1159399999999999e+02   1.1159399999999999e+02   1.1890500000000000e+02   1.1890500000000000e+02   1.2446299999999999e+02   1.2446299999999999e+02   1.2587700000000000e+02   1.2587700000000000e+02   1.2186700000000000e+02   1.2186700000000000e+02   1.1308300000000000e+02   1.1308300000000000e+02   1.0178600000000000e+02   1.0178600000000000e+02   9.0652600000000007e+01   9.0652600000000007e+01   8.1699500000000000e+01   8.1699500000000000e+01   7.5921400000000006e+01   7.5921400000000006e+01   7.3450400000000002e+01   7.3450400000000002e+01   7.3779300000000006e+01   7.3779300000000006e+01   7.5805899999999994e+01   7.5805899999999994e+01   7.7801199999999994e+01   7.7801199999999994e+01   7.7657499999999999e+01   7.7657499999999999e+01   7.3677800000000005e+01   7.3677800000000005e+01   6.5566999999999993e+01   6.5566999999999993e+01   5.4722499999999997e+01   5.4722499999999997e+01   4.3402000000000001e+01   4.3402000000000001e+01   3.3491399999999999e+01   3.3491399999999999e+01   2.5872399999999999e+01   2.5872399999999999e+01   2.0565500000000000e+01   2.0565500000000000e+01   1.7178200000000000e+01   1.7178200000000000e+01   1.5250600000000000e+01   1.5250600000000000e+01   1.4407999999999999e+01   1.4407999999999999e+01   1.4385899999999999e+01   1.4385899999999999e+01   1.5009100000000000e+01   1.5009100000000000e+01   1.6170100000000001e+01   1.6170100000000001e+01   1.7822099999999999e+01   1.7822099999999999e+01   1.9983300000000000e+01   1.9983300000000000e+01   2.2734100000000002e+01   2.2734100000000002e+01   2.6189399999999999e+01   2.6189399999999999e+01   3.0425400000000000e+01   3.0425400000000000e+01   3.5354199999999999e+01   3.5354199999999999e+01   4.0569600000000001e+01   4.0569600000000001e+01   4.5260399999999997e+01   4.5260399999999997e+01   4.8349699999999999e+01   4.8349699999999999e+01   4.8937600000000003e+01   4.8937600000000003e+01   4.6831600000000002e+01   4.6831600000000002e+01   4.2731499999999997e+01   4.2731499999999997e+01   3.7881300000000003e+01   3.7881300000000003e+01   3.3495100000000001e+01   3.3495100000000001e+01   3.0408700000000000e+01   3.0408700000000000e+01   2.9088100000000001e+01   2.9088100000000001e+01   2.9834000000000000e+01   2.9834000000000000e+01   3.2983300000000000e+01   3.2983300000000000e+01   3.8987800000000000e+01   3.8987800000000000e+01   4.8286200000000001e+01   4.8286200000000001e+01   6.0879899999999999e+01   6.0879899999999999e+01   7.5652600000000007e+01   7.5652600000000007e+01   8.9871300000000005e+01   8.9871300000000005e+01   9.96916999999999